V -t * -v 1.0a5 -a 0
A -t * -n 1 -p 0 -o 0x7fffffff -c 30 -a 1
A -t * -h 1 -m 1073741823 -s 0
n -t * -a 0 -s 0 -S UP -v circle -c black -i black
n -t * -a 1 -s 1 -S UP -v circle -c black -i black
n -t * -a 2 -s 2 -S UP -v circle -c black -i black
n -t * -a 3 -s 3 -S UP -v circle -c black -i black
l -t * -s 0 -d 1 -S UP -r 100000 -D 0.01 -c black
l -t * -s 2 -d 1 -S UP -r 10000000 -D 0.01 -c black
l -t * -s 2 -d 0 -S UP -r 1000000 -D 0.10000000000000001 -c black
l -t * -s 1 -d 3 -S UP -r 100000 -D 0.10000000000000001 -c black
l -t * -s 2 -d 3 -S UP -r 1000000 -D 0.01 -c black
+ -t 0.000169788487334637 -s 0 -d 1 -p rtProtoDV -e 4 -c 0 -i 0 -a 0 -x {0.2 1.1 -1 ------- null}
- -t 0.000169788487334637 -s 0 -d 1 -p rtProtoDV -e 4 -c 0 -i 0 -a 0 -x {0.2 1.1 -1 ------- null}
h -t 0.000169788487334637 -s 0 -d 1 -p rtProtoDV -e 4 -c 0 -i 0 -a 0 -x {0.2 1.1 -1 ------- null}
+ -t 0.000169788487334637 -s 0 -d 2 -p rtProtoDV -e 4 -c 0 -i 1 -a 0 -x {0.2 2.1 -1 ------- null}
- -t 0.000169788487334637 -s 0 -d 2 -p rtProtoDV -e 4 -c 0 -i 1 -a 0 -x {0.2 2.1 -1 ------- null}
h -t 0.000169788487334637 -s 0 -d 2 -p rtProtoDV -e 4 -c 0 -i 1 -a 0 -x {0.2 2.1 -1 ------- null}
+ -t 0.00710233021858257 -s 2 -d 0 -p rtProtoDV -e 4 -c 0 -i 2 -a 0 -x {2.1 0.2 -1 ------- null}
- -t 0.00710233021858257 -s 2 -d 0 -p rtProtoDV -e 4 -c 0 -i 2 -a 0 -x {2.1 0.2 -1 ------- null}
h -t 0.00710233021858257 -s 2 -d 0 -p rtProtoDV -e 4 -c 0 -i 2 -a 0 -x {2.1 0.2 -1 ------- null}
+ -t 0.00710233021858257 -s 2 -d 1 -p rtProtoDV -e 4 -c 0 -i 3 -a 0 -x {2.1 1.1 -1 ------- null}
- -t 0.00710233021858257 -s 2 -d 1 -p rtProtoDV -e 4 -c 0 -i 3 -a 0 -x {2.1 1.1 -1 ------- null}
h -t 0.00710233021858257 -s 2 -d 1 -p rtProtoDV -e 4 -c 0 -i 3 -a 0 -x {2.1 1.1 -1 ------- null}
+ -t 0.00710233021858257 -s 2 -d 3 -p rtProtoDV -e 4 -c 0 -i 4 -a 0 -x {2.1 3.2 -1 ------- null}
- -t 0.00710233021858257 -s 2 -d 3 -p rtProtoDV -e 4 -c 0 -i 4 -a 0 -x {2.1 3.2 -1 ------- null}
h -t 0.00710233021858257 -s 2 -d 3 -p rtProtoDV -e 4 -c 0 -i 4 -a 0 -x {2.1 3.2 -1 ------- null}
r -t 0.0104897884873346 -s 0 -d 1 -p rtProtoDV -e 4 -c 0 -i 0 -a 0 -x {0.2 1.1 -1 ------- null}
+ -t 0.0104897884873346 -s 1 -d 0 -p rtProtoDV -e 4 -c 0 -i 5 -a 0 -x {1.1 0.2 -1 ------- null}
- -t 0.0104897884873346 -s 1 -d 0 -p rtProtoDV -e 4 -c 0 -i 5 -a 0 -x {1.1 0.2 -1 ------- null}
h -t 0.0104897884873346 -s 1 -d 0 -p rtProtoDV -e 4 -c 0 -i 5 -a 0 -x {1.1 0.2 -1 ------- null}
+ -t 0.0104897884873346 -s 1 -d 0 -p rtProtoDV -e 4 -c 0 -i 6 -a 0 -x {1.1 2.1 -1 ------- null}
+ -t 0.0104897884873346 -s 1 -d 3 -p rtProtoDV -e 4 -c 0 -i 7 -a 0 -x {1.1 3.2 -1 ------- null}
- -t 0.0104897884873346 -s 1 -d 3 -p rtProtoDV -e 4 -c 0 -i 7 -a 0 -x {1.1 3.2 -1 ------- null}
h -t 0.0104897884873346 -s 1 -d 3 -p rtProtoDV -e 4 -c 0 -i 7 -a 0 -x {1.1 3.2 -1 ------- null}
- -t 0.0108097884873346 -s 1 -d 0 -p rtProtoDV -e 4 -c 0 -i 6 -a 0 -x {1.1 2.1 -1 ------- null}
h -t 0.0108097884873346 -s 1 -d 0 -p rtProtoDV -e 4 -c 0 -i 6 -a 0 -x {1.1 2.1 -1 ------- null}
r -t 0.0171055302185826 -s 2 -d 1 -p rtProtoDV -e 4 -c 0 -i 3 -a 0 -x {2.1 1.1 -1 ------- null}
+ -t 0.0171055302185826 -s 1 -d 0 -p rtProtoDV -e 4 -c 0 -i 8 -a 0 -x {1.1 0.2 -1 ------- null}
- -t 0.0171055302185826 -s 1 -d 0 -p rtProtoDV -e 4 -c 0 -i 8 -a 0 -x {1.1 0.2 -1 ------- null}
h -t 0.0171055302185826 -s 1 -d 0 -p rtProtoDV -e 4 -c 0 -i 8 -a 0 -x {1.1 0.2 -1 ------- null}
+ -t 0.0171055302185826 -s 1 -d 2 -p rtProtoDV -e 4 -c 0 -i 9 -a 0 -x {1.1 2.1 -1 ------- null}
- -t 0.0171055302185826 -s 1 -d 2 -p rtProtoDV -e 4 -c 0 -i 9 -a 0 -x {1.1 2.1 -1 ------- null}
h -t 0.0171055302185826 -s 1 -d 2 -p rtProtoDV -e 4 -c 0 -i 9 -a 0 -x {1.1 2.1 -1 ------- null}
+ -t 0.0171055302185826 -s 1 -d 2 -p rtProtoDV -e 4 -c 0 -i 10 -a 0 -x {1.1 3.2 -1 ------- null}
- -t 0.0171087302185826 -s 1 -d 2 -p rtProtoDV -e 4 -c 0 -i 10 -a 0 -x {1.1 3.2 -1 ------- null}
h -t 0.0171087302185826 -s 1 -d 2 -p rtProtoDV -e 4 -c 0 -i 10 -a 0 -x {1.1 3.2 -1 ------- null}
r -t 0.0171343302185826 -s 2 -d 3 -p rtProtoDV -e 4 -c 0 -i 4 -a 0 -x {2.1 3.2 -1 ------- null}
+ -t 0.0171343302185826 -s 3 -d 2 -p rtProtoDV -e 4 -c 0 -i 11 -a 0 -x {3.2 1.1 -1 ------- null}
- -t 0.0171343302185826 -s 3 -d 2 -p rtProtoDV -e 4 -c 0 -i 11 -a 0 -x {3.2 1.1 -1 ------- null}
h -t 0.0171343302185826 -s 3 -d 2 -p rtProtoDV -e 4 -c 0 -i 11 -a 0 -x {3.2 1.1 -1 ------- null}
+ -t 0.0171343302185826 -s 3 -d 2 -p rtProtoDV -e 4 -c 0 -i 12 -a 0 -x {3.2 2.1 -1 ------- null}
- -t 0.0171663302185826 -s 3 -d 2 -p rtProtoDV -e 4 -c 0 -i 12 -a 0 -x {3.2 2.1 -1 ------- null}
h -t 0.0171663302185826 -s 3 -d 2 -p rtProtoDV -e 4 -c 0 -i 12 -a 0 -x {3.2 2.1 -1 ------- null}
r -t 0.0208097884873346 -s 1 -d 0 -p rtProtoDV -e 4 -c 0 -i 5 -a 0 -x {1.1 0.2 -1 ------- null}
+ -t 0.0208097884873346 -s 0 -d 1 -p rtProtoDV -e 4 -c 0 -i 13 -a 0 -x {0.2 1.1 -1 ------- null}
- -t 0.0208097884873346 -s 0 -d 1 -p rtProtoDV -e 4 -c 0 -i 13 -a 0 -x {0.2 1.1 -1 ------- null}
h -t 0.0208097884873346 -s 0 -d 1 -p rtProtoDV -e 4 -c 0 -i 13 -a 0 -x {0.2 1.1 -1 ------- null}
+ -t 0.0208097884873346 -s 0 -d 2 -p rtProtoDV -e 4 -c 0 -i 14 -a 0 -x {0.2 2.1 -1 ------- null}
- -t 0.0208097884873346 -s 0 -d 2 -p rtProtoDV -e 4 -c 0 -i 14 -a 0 -x {0.2 2.1 -1 ------- null}
h -t 0.0208097884873346 -s 0 -d 2 -p rtProtoDV -e 4 -c 0 -i 14 -a 0 -x {0.2 2.1 -1 ------- null}
r -t 0.0211297884873346 -s 1 -d 0 -p rtProtoDV -e 4 -c 0 -i 6 -a 0 -x {1.1 2.1 -1 ------- null}
+ -t 0.0211297884873346 -s 0 -d 2 -p rtProtoDV -e 4 -c 0 -i 6 -a 0 -x {1.1 2.1 -1 ------- null}
- -t 0.0211297884873346 -s 0 -d 2 -p rtProtoDV -e 4 -c 0 -i 6 -a 0 -x {1.1 2.1 -1 ------- null}
h -t 0.0211297884873346 -s 0 -d 2 -p rtProtoDV -e 4 -c 0 -i 6 -a 0 -x {1.1 2.1 -1 ------- null}
r -t 0.0271087302185826 -s 1 -d 2 -p rtProtoDV -e 4 -c 0 -i 9 -a 0 -x {1.1 2.1 -1 ------- null}
+ -t 0.0271087302185826 -s 2 -d 1 -p rtProtoDV -e 4 -c 0 -i 15 -a 0 -x {2.1 0.2 -1 ------- null}
- -t 0.0271087302185826 -s 2 -d 1 -p rtProtoDV -e 4 -c 0 -i 15 -a 0 -x {2.1 0.2 -1 ------- null}
h -t 0.0271087302185826 -s 2 -d 1 -p rtProtoDV -e 4 -c 0 -i 15 -a 0 -x {2.1 0.2 -1 ------- null}
+ -t 0.0271087302185826 -s 2 -d 1 -p rtProtoDV -e 4 -c 0 -i 16 -a 0 -x {2.1 1.1 -1 ------- null}
+ -t 0.0271087302185826 -s 2 -d 3 -p rtProtoDV -e 4 -c 0 -i 17 -a 0 -x {2.1 3.2 -1 ------- null}
- -t 0.0271087302185826 -s 2 -d 3 -p rtProtoDV -e 4 -c 0 -i 17 -a 0 -x {2.1 3.2 -1 ------- null}
h -t 0.0271087302185826 -s 2 -d 3 -p rtProtoDV -e 4 -c 0 -i 17 -a 0 -x {2.1 3.2 -1 ------- null}
r -t 0.0271119302185826 -s 1 -d 2 -p rtProtoDV -e 4 -c 0 -i 10 -a 0 -x {1.1 3.2 -1 ------- null}
+ -t 0.0271119302185826 -s 2 -d 3 -p rtProtoDV -e 4 -c 0 -i 10 -a 0 -x {1.1 3.2 -1 ------- null}
- -t 0.0271119302185826 -s 2 -d 1 -p rtProtoDV -e 4 -c 0 -i 16 -a 0 -x {2.1 1.1 -1 ------- null}
h -t 0.0271119302185826 -s 2 -d 1 -p rtProtoDV -e 4 -c 0 -i 16 -a 0 -x {2.1 1.1 -1 ------- null}
- -t 0.0271407302185826 -s 2 -d 3 -p rtProtoDV -e 4 -c 0 -i 10 -a 0 -x {1.1 3.2 -1 ------- null}
h -t 0.0271407302185826 -s 2 -d 3 -p rtProtoDV -e 4 -c 0 -i 10 -a 0 -x {1.1 3.2 -1 ------- null}
r -t 0.0271663302185826 -s 3 -d 2 -p rtProtoDV -e 4 -c 0 -i 11 -a 0 -x {3.2 1.1 -1 ------- null}
+ -t 0.0271663302185826 -s 2 -d 1 -p rtProtoDV -e 4 -c 0 -i 11 -a 0 -x {3.2 1.1 -1 ------- null}
- -t 0.0271663302185826 -s 2 -d 1 -p rtProtoDV -e 4 -c 0 -i 11 -a 0 -x {3.2 1.1 -1 ------- null}
h -t 0.0271663302185826 -s 2 -d 1 -p rtProtoDV -e 4 -c 0 -i 11 -a 0 -x {3.2 1.1 -1 ------- null}
r -t 0.0271983302185826 -s 3 -d 2 -p rtProtoDV -e 4 -c 0 -i 12 -a 0 -x {3.2 2.1 -1 ------- null}
+ -t 0.0271983302185826 -s 2 -d 1 -p rtProtoDV -e 4 -c 0 -i 18 -a 0 -x {2.1 0.2 -1 ------- null}
- -t 0.0271983302185826 -s 2 -d 1 -p rtProtoDV -e 4 -c 0 -i 18 -a 0 -x {2.1 0.2 -1 ------- null}
h -t 0.0271983302185826 -s 2 -d 1 -p rtProtoDV -e 4 -c 0 -i 18 -a 0 -x {2.1 0.2 -1 ------- null}
+ -t 0.0271983302185826 -s 2 -d 1 -p rtProtoDV -e 4 -c 0 -i 19 -a 0 -x {2.1 1.1 -1 ------- null}
+ -t 0.0271983302185826 -s 2 -d 3 -p rtProtoDV -e 4 -c 0 -i 20 -a 0 -x {2.1 3.2 -1 ------- null}
- -t 0.0271983302185826 -s 2 -d 3 -p rtProtoDV -e 4 -c 0 -i 20 -a 0 -x {2.1 3.2 -1 ------- null}
h -t 0.0271983302185826 -s 2 -d 3 -p rtProtoDV -e 4 -c 0 -i 20 -a 0 -x {2.1 3.2 -1 ------- null}
- -t 0.0272015302185826 -s 2 -d 1 -p rtProtoDV -e 4 -c 0 -i 19 -a 0 -x {2.1 1.1 -1 ------- null}
h -t 0.0272015302185826 -s 2 -d 1 -p rtProtoDV -e 4 -c 0 -i 19 -a 0 -x {2.1 1.1 -1 ------- null}
r -t 0.0274255302185826 -s 1 -d 0 -p rtProtoDV -e 4 -c 0 -i 8 -a 0 -x {1.1 0.2 -1 ------- null}
+ -t 0.0274255302185826 -s 0 -d 1 -p rtProtoDV -e 4 -c 0 -i 21 -a 0 -x {0.2 1.1 -1 ------- null}
- -t 0.0274255302185826 -s 0 -d 1 -p rtProtoDV -e 4 -c 0 -i 21 -a 0 -x {0.2 1.1 -1 ------- null}
h -t 0.0274255302185826 -s 0 -d 1 -p rtProtoDV -e 4 -c 0 -i 21 -a 0 -x {0.2 1.1 -1 ------- null}
+ -t 0.0274255302185826 -s 0 -d 1 -p rtProtoDV -e 4 -c 0 -i 22 -a 0 -x {0.2 2.1 -1 ------- null}
- -t 0.0277455302185826 -s 0 -d 1 -p rtProtoDV -e 4 -c 0 -i 22 -a 0 -x {0.2 2.1 -1 ------- null}
h -t 0.0277455302185826 -s 0 -d 1 -p rtProtoDV -e 4 -c 0 -i 22 -a 0 -x {0.2 2.1 -1 ------- null}
r -t 0.0311297884873346 -s 0 -d 1 -p rtProtoDV -e 4 -c 0 -i 13 -a 0 -x {0.2 1.1 -1 ------- null}
r -t 0.0371119302185826 -s 2 -d 1 -p rtProtoDV -e 4 -c 0 -i 15 -a 0 -x {2.1 0.2 -1 ------- null}
+ -t 0.0371119302185826 -s 1 -d 0 -p rtProtoDV -e 4 -c 0 -i 15 -a 0 -x {2.1 0.2 -1 ------- null}
- -t 0.0371119302185826 -s 1 -d 0 -p rtProtoDV -e 4 -c 0 -i 15 -a 0 -x {2.1 0.2 -1 ------- null}
h -t 0.0371119302185826 -s 1 -d 0 -p rtProtoDV -e 4 -c 0 -i 15 -a 0 -x {2.1 0.2 -1 ------- null}
r -t 0.0371151302185826 -s 2 -d 1 -p rtProtoDV -e 4 -c 0 -i 16 -a 0 -x {2.1 1.1 -1 ------- null}
r -t 0.0371407302185826 -s 2 -d 3 -p rtProtoDV -e 4 -c 0 -i 17 -a 0 -x {2.1 3.2 -1 ------- null}
+ -t 0.0371407302185826 -s 3 -d 2 -p rtProtoDV -e 4 -c 0 -i 23 -a 0 -x {3.2 1.1 -1 ------- null}
- -t 0.0371407302185826 -s 3 -d 2 -p rtProtoDV -e 4 -c 0 -i 23 -a 0 -x {3.2 1.1 -1 ------- null}
h -t 0.0371407302185826 -s 3 -d 2 -p rtProtoDV -e 4 -c 0 -i 23 -a 0 -x {3.2 1.1 -1 ------- null}
+ -t 0.0371407302185826 -s 3 -d 2 -p rtProtoDV -e 4 -c 0 -i 24 -a 0 -x {3.2 2.1 -1 ------- null}
r -t 0.0371695302185826 -s 2 -d 1 -p rtProtoDV -e 4 -c 0 -i 11 -a 0 -x {3.2 1.1 -1 ------- null}
r -t 0.0371727302185826 -s 2 -d 3 -p rtProtoDV -e 4 -c 0 -i 10 -a 0 -x {1.1 3.2 -1 ------- null}
+ -t 0.0371727302185826 -s 3 -d 1 -p rtProtoDV -e 4 -c 0 -i 25 -a 0 -x {3.2 1.1 -1 ------- null}
- -t 0.0371727302185826 -s 3 -d 1 -p rtProtoDV -e 4 -c 0 -i 25 -a 0 -x {3.2 1.1 -1 ------- null}
h -t 0.0371727302185826 -s 3 -d 1 -p rtProtoDV -e 4 -c 0 -i 25 -a 0 -x {3.2 1.1 -1 ------- null}
+ -t 0.0371727302185826 -s 3 -d 2 -p rtProtoDV -e 4 -c 0 -i 26 -a 0 -x {3.2 2.1 -1 ------- null}
- -t 0.0371727302185826 -s 3 -d 2 -p rtProtoDV -e 4 -c 0 -i 24 -a 0 -x {3.2 2.1 -1 ------- null}
h -t 0.0371727302185826 -s 3 -d 2 -p rtProtoDV -e 4 -c 0 -i 24 -a 0 -x {3.2 2.1 -1 ------- null}
r -t 0.0372015302185826 -s 2 -d 1 -p rtProtoDV -e 4 -c 0 -i 18 -a 0 -x {2.1 0.2 -1 ------- null}
+ -t 0.0372015302185826 -s 1 -d 0 -p rtProtoDV -e 4 -c 0 -i 18 -a 0 -x {2.1 0.2 -1 ------- null}
r -t 0.0372047302185826 -s 2 -d 1 -p rtProtoDV -e 4 -c 0 -i 19 -a 0 -x {2.1 1.1 -1 ------- null}
- -t 0.0372047302185826 -s 3 -d 2 -p rtProtoDV -e 4 -c 0 -i 26 -a 0 -x {3.2 2.1 -1 ------- null}
h -t 0.0372047302185826 -s 3 -d 2 -p rtProtoDV -e 4 -c 0 -i 26 -a 0 -x {3.2 2.1 -1 ------- null}
r -t 0.0372303302185826 -s 2 -d 3 -p rtProtoDV -e 4 -c 0 -i 20 -a 0 -x {2.1 3.2 -1 ------- null}
- -t 0.0374319302185826 -s 1 -d 0 -p rtProtoDV -e 4 -c 0 -i 18 -a 0 -x {2.1 0.2 -1 ------- null}
h -t 0.0374319302185826 -s 1 -d 0 -p rtProtoDV -e 4 -c 0 -i 18 -a 0 -x {2.1 0.2 -1 ------- null}
r -t 0.0377455302185826 -s 0 -d 1 -p rtProtoDV -e 4 -c 0 -i 21 -a 0 -x {0.2 1.1 -1 ------- null}
r -t 0.0380655302185826 -s 0 -d 1 -p rtProtoDV -e 4 -c 0 -i 22 -a 0 -x {0.2 2.1 -1 ------- null}
+ -t 0.0380655302185826 -s 1 -d 2 -p rtProtoDV -e 4 -c 0 -i 22 -a 0 -x {0.2 2.1 -1 ------- null}
- -t 0.0380655302185826 -s 1 -d 2 -p rtProtoDV -e 4 -c 0 -i 22 -a 0 -x {0.2 2.1 -1 ------- null}
h -t 0.0380655302185826 -s 1 -d 2 -p rtProtoDV -e 4 -c 0 -i 22 -a 0 -x {0.2 2.1 -1 ------- null}
+ -t 0.04406133552271 -s 3 -d 1 -p rtProtoDV -e 4 -c 0 -i 27 -a 0 -x {3.2 1.1 -1 ------- null}
- -t 0.04406133552271 -s 3 -d 1 -p rtProtoDV -e 4 -c 0 -i 27 -a 0 -x {3.2 1.1 -1 ------- null}
h -t 0.04406133552271 -s 3 -d 1 -p rtProtoDV -e 4 -c 0 -i 27 -a 0 -x {3.2 1.1 -1 ------- null}
+ -t 0.04406133552271 -s 3 -d 2 -p rtProtoDV -e 4 -c 0 -i 28 -a 0 -x {3.2 2.1 -1 ------- null}
- -t 0.04406133552271 -s 3 -d 2 -p rtProtoDV -e 4 -c 0 -i 28 -a 0 -x {3.2 2.1 -1 ------- null}
h -t 0.04406133552271 -s 3 -d 2 -p rtProtoDV -e 4 -c 0 -i 28 -a 0 -x {3.2 2.1 -1 ------- null}
r -t 0.0471727302185826 -s 3 -d 2 -p rtProtoDV -e 4 -c 0 -i 23 -a 0 -x {3.2 1.1 -1 ------- null}
+ -t 0.0471727302185826 -s 2 -d 1 -p rtProtoDV -e 4 -c 0 -i 23 -a 0 -x {3.2 1.1 -1 ------- null}
- -t 0.0471727302185826 -s 2 -d 1 -p rtProtoDV -e 4 -c 0 -i 23 -a 0 -x {3.2 1.1 -1 ------- null}
h -t 0.0471727302185826 -s 2 -d 1 -p rtProtoDV -e 4 -c 0 -i 23 -a 0 -x {3.2 1.1 -1 ------- null}
r -t 0.0472047302185826 -s 3 -d 2 -p rtProtoDV -e 4 -c 0 -i 24 -a 0 -x {3.2 2.1 -1 ------- null}
r -t 0.0472367302185826 -s 3 -d 2 -p rtProtoDV -e 4 -c 0 -i 26 -a 0 -x {3.2 2.1 -1 ------- null}
r -t 0.0474319302185826 -s 1 -d 0 -p rtProtoDV -e 4 -c 0 -i 15 -a 0 -x {2.1 0.2 -1 ------- null}
r -t 0.0477519302185826 -s 1 -d 0 -p rtProtoDV -e 4 -c 0 -i 18 -a 0 -x {2.1 0.2 -1 ------- null}
r -t 0.0480687302185826 -s 1 -d 2 -p rtProtoDV -e 4 -c 0 -i 22 -a 0 -x {0.2 2.1 -1 ------- null}
+ -t 0.0480687302185826 -s 2 -d 0 -p rtProtoDV -e 4 -c 0 -i 29 -a 0 -x {2.1 0.2 -1 ------- null}
- -t 0.0480687302185826 -s 2 -d 0 -p rtProtoDV -e 4 -c 0 -i 29 -a 0 -x {2.1 0.2 -1 ------- null}
h -t 0.0480687302185826 -s 2 -d 0 -p rtProtoDV -e 4 -c 0 -i 29 -a 0 -x {2.1 0.2 -1 ------- null}
+ -t 0.0480687302185826 -s 2 -d 1 -p rtProtoDV -e 4 -c 0 -i 30 -a 0 -x {2.1 1.1 -1 ------- null}
- -t 0.0480687302185826 -s 2 -d 1 -p rtProtoDV -e 4 -c 0 -i 30 -a 0 -x {2.1 1.1 -1 ------- null}
h -t 0.0480687302185826 -s 2 -d 1 -p rtProtoDV -e 4 -c 0 -i 30 -a 0 -x {2.1 1.1 -1 ------- null}
+ -t 0.0480687302185826 -s 2 -d 3 -p rtProtoDV -e 4 -c 0 -i 31 -a 0 -x {2.1 3.2 -1 ------- null}
- -t 0.0480687302185826 -s 2 -d 3 -p rtProtoDV -e 4 -c 0 -i 31 -a 0 -x {2.1 3.2 -1 ------- null}
h -t 0.0480687302185826 -s 2 -d 3 -p rtProtoDV -e 4 -c 0 -i 31 -a 0 -x {2.1 3.2 -1 ------- null}
r -t 0.05409333552271 -s 3 -d 2 -p rtProtoDV -e 4 -c 0 -i 28 -a 0 -x {3.2 2.1 -1 ------- null}
r -t 0.0571759302185826 -s 2 -d 1 -p rtProtoDV -e 4 -c 0 -i 23 -a 0 -x {3.2 1.1 -1 ------- null}
r -t 0.0580719302185826 -s 2 -d 1 -p rtProtoDV -e 4 -c 0 -i 30 -a 0 -x {2.1 1.1 -1 ------- null}
r -t 0.0581007302185826 -s 2 -d 3 -p rtProtoDV -e 4 -c 0 -i 31 -a 0 -x {2.1 3.2 -1 ------- null}
r -t 0.100201788487335 -s 0 -d 2 -p rtProtoDV -e 4 -c 0 -i 1 -a 0 -x {0.2 2.1 -1 ------- null}
r -t 0.107134330218583 -s 2 -d 0 -p rtProtoDV -e 4 -c 0 -i 2 -a 0 -x {2.1 0.2 -1 ------- null}
r -t 0.110809788487335 -s 1 -d 3 -p rtProtoDV -e 4 -c 0 -i 7 -a 0 -x {1.1 3.2 -1 ------- null}
r -t 0.120841788487335 -s 0 -d 2 -p rtProtoDV -e 4 -c 0 -i 14 -a 0 -x {0.2 2.1 -1 ------- null}
r -t 0.121161788487335 -s 0 -d 2 -p rtProtoDV -e 4 -c 0 -i 6 -a 0 -x {1.1 2.1 -1 ------- null}
r -t 0.137492730218583 -s 3 -d 1 -p rtProtoDV -e 4 -c 0 -i 25 -a 0 -x {3.2 1.1 -1 ------- null}
r -t 0.14438133552271 -s 3 -d 1 -p rtProtoDV -e 4 -c 0 -i 27 -a 0 -x {3.2 1.1 -1 ------- null}
r -t 0.148100730218583 -s 2 -d 0 -p rtProtoDV -e 4 -c 0 -i 29 -a 0 -x {2.1 0.2 -1 ------- null}
+ -t 0.277940357931862 -s 1 -d 0 -p rtProtoDV -e 4 -c 0 -i 32 -a 0 -x {1.1 0.2 -1 ------- null}
- -t 0.277940357931862 -s 1 -d 0 -p rtProtoDV -e 4 -c 0 -i 32 -a 0 -x {1.1 0.2 -1 ------- null}
h -t 0.277940357931862 -s 1 -d 0 -p rtProtoDV -e 4 -c 0 -i 32 -a 0 -x {1.1 0.2 -1 ------- null}
+ -t 0.277940357931862 -s 1 -d 2 -p rtProtoDV -e 4 -c 0 -i 33 -a 0 -x {1.1 2.1 -1 ------- null}
- -t 0.277940357931862 -s 1 -d 2 -p rtProtoDV -e 4 -c 0 -i 33 -a 0 -x {1.1 2.1 -1 ------- null}
h -t 0.277940357931862 -s 1 -d 2 -p rtProtoDV -e 4 -c 0 -i 33 -a 0 -x {1.1 2.1 -1 ------- null}
+ -t 0.277940357931862 -s 1 -d 2 -p rtProtoDV -e 4 -c 0 -i 34 -a 0 -x {1.1 3.2 -1 ------- null}
- -t 0.277943557931862 -s 1 -d 2 -p rtProtoDV -e 4 -c 0 -i 34 -a 0 -x {1.1 3.2 -1 ------- null}
h -t 0.277943557931862 -s 1 -d 2 -p rtProtoDV -e 4 -c 0 -i 34 -a 0 -x {1.1 3.2 -1 ------- null}
r -t 0.287943557931862 -s 1 -d 2 -p rtProtoDV -e 4 -c 0 -i 33 -a 0 -x {1.1 2.1 -1 ------- null}
r -t 0.287946757931862 -s 1 -d 2 -p rtProtoDV -e 4 -c 0 -i 34 -a 0 -x {1.1 3.2 -1 ------- null}
+ -t 0.287946757931862 -s 2 -d 3 -p rtProtoDV -e 4 -c 0 -i 34 -a 0 -x {1.1 3.2 -1 ------- null}
- -t 0.287946757931862 -s 2 -d 3 -p rtProtoDV -e 4 -c 0 -i 34 -a 0 -x {1.1 3.2 -1 ------- null}
h -t 0.287946757931862 -s 2 -d 3 -p rtProtoDV -e 4 -c 0 -i 34 -a 0 -x {1.1 3.2 -1 ------- null}
r -t 0.288260357931862 -s 1 -d 0 -p rtProtoDV -e 4 -c 0 -i 32 -a 0 -x {1.1 0.2 -1 ------- null}
r -t 0.297978757931862 -s 2 -d 3 -p rtProtoDV -e 4 -c 0 -i 34 -a 0 -x {1.1 3.2 -1 ------- null}
+ -t 0.5 -s 0 -d 1 -p cbr -e 500 -c 0 -i 35 -a 0 -x {0.0 3.0 0 ------- null}
- -t 0.5 -s 0 -d 1 -p cbr -e 500 -c 0 -i 35 -a 0 -x {0.0 3.0 0 ------- null}
h -t 0.5 -s 0 -d 1 -p cbr -e 500 -c 0 -i 35 -a 0 -x {0.0 3.0 -1 ------- null}
r -t 0.55 -s 0 -d 1 -p cbr -e 500 -c 0 -i 35 -a 0 -x {0.0 3.0 0 ------- null}
+ -t 0.55 -s 1 -d 2 -p cbr -e 500 -c 0 -i 35 -a 0 -x {0.0 3.0 0 ------- null}
- -t 0.55 -s 1 -d 2 -p cbr -e 500 -c 0 -i 35 -a 0 -x {0.0 3.0 0 ------- null}
h -t 0.55 -s 1 -d 2 -p cbr -e 500 -c 0 -i 35 -a 0 -x {0.0 3.0 -1 ------- null}
r -t 0.5604 -s 1 -d 2 -p cbr -e 500 -c 0 -i 35 -a 0 -x {0.0 3.0 0 ------- null}
+ -t 0.5604 -s 2 -d 3 -p cbr -e 500 -c 0 -i 35 -a 0 -x {0.0 3.0 0 ------- null}
- -t 0.5604 -s 2 -d 3 -p cbr -e 500 -c 0 -i 35 -a 0 -x {0.0 3.0 0 ------- null}
h -t 0.5604 -s 2 -d 3 -p cbr -e 500 -c 0 -i 35 -a 0 -x {0.0 3.0 -1 ------- null}
r -t 0.5744 -s 2 -d 3 -p cbr -e 500 -c 0 -i 35 -a 0 -x {0.0 3.0 0 ------- null}
+ -t 0.6 -s 0 -d 1 -p cbr -e 500 -c 0 -i 36 -a 0 -x {0.0 3.0 1 ------- null}
- -t 0.6 -s 0 -d 1 -p cbr -e 500 -c 0 -i 36 -a 0 -x {0.0 3.0 1 ------- null}
h -t 0.6 -s 0 -d 1 -p cbr -e 500 -c 0 -i 36 -a 0 -x {0.0 3.0 -1 ------- null}
r -t 0.65 -s 0 -d 1 -p cbr -e 500 -c 0 -i 36 -a 0 -x {0.0 3.0 1 ------- null}
+ -t 0.65 -s 1 -d 2 -p cbr -e 500 -c 0 -i 36 -a 0 -x {0.0 3.0 1 ------- null}
- -t 0.65 -s 1 -d 2 -p cbr -e 500 -c 0 -i 36 -a 0 -x {0.0 3.0 1 ------- null}
h -t 0.65 -s 1 -d 2 -p cbr -e 500 -c 0 -i 36 -a 0 -x {0.0 3.0 -1 ------- null}
r -t 0.6604 -s 1 -d 2 -p cbr -e 500 -c 0 -i 36 -a 0 -x {0.0 3.0 1 ------- null}
+ -t 0.6604 -s 2 -d 3 -p cbr -e 500 -c 0 -i 36 -a 0 -x {0.0 3.0 1 ------- null}
- -t 0.6604 -s 2 -d 3 -p cbr -e 500 -c 0 -i 36 -a 0 -x {0.0 3.0 1 ------- null}
h -t 0.6604 -s 2 -d 3 -p cbr -e 500 -c 0 -i 36 -a 0 -x {0.0 3.0 -1 ------- null}
r -t 0.6744 -s 2 -d 3 -p cbr -e 500 -c 0 -i 36 -a 0 -x {0.0 3.0 1 ------- null}
+ -t 0.7 -s 0 -d 1 -p cbr -e 500 -c 0 -i 37 -a 0 -x {0.0 3.0 2 ------- null}
- -t 0.7 -s 0 -d 1 -p cbr -e 500 -c 0 -i 37 -a 0 -x {0.0 3.0 2 ------- null}
h -t 0.7 -s 0 -d 1 -p cbr -e 500 -c 0 -i 37 -a 0 -x {0.0 3.0 -1 ------- null}
r -t 0.75 -s 0 -d 1 -p cbr -e 500 -c 0 -i 37 -a 0 -x {0.0 3.0 2 ------- null}
+ -t 0.75 -s 1 -d 2 -p cbr -e 500 -c 0 -i 37 -a 0 -x {0.0 3.0 2 ------- null}
- -t 0.75 -s 1 -d 2 -p cbr -e 500 -c 0 -i 37 -a 0 -x {0.0 3.0 2 ------- null}
h -t 0.75 -s 1 -d 2 -p cbr -e 500 -c 0 -i 37 -a 0 -x {0.0 3.0 -1 ------- null}
r -t 0.7604 -s 1 -d 2 -p cbr -e 500 -c 0 -i 37 -a 0 -x {0.0 3.0 2 ------- null}
+ -t 0.7604 -s 2 -d 3 -p cbr -e 500 -c 0 -i 37 -a 0 -x {0.0 3.0 2 ------- null}
- -t 0.7604 -s 2 -d 3 -p cbr -e 500 -c 0 -i 37 -a 0 -x {0.0 3.0 2 ------- null}
h -t 0.7604 -s 2 -d 3 -p cbr -e 500 -c 0 -i 37 -a 0 -x {0.0 3.0 -1 ------- null}
r -t 0.7744 -s 2 -d 3 -p cbr -e 500 -c 0 -i 37 -a 0 -x {0.0 3.0 2 ------- null}
+ -t 0.8 -s 0 -d 1 -p cbr -e 500 -c 0 -i 38 -a 0 -x {0.0 3.0 3 ------- null}
- -t 0.8 -s 0 -d 1 -p cbr -e 500 -c 0 -i 38 -a 0 -x {0.0 3.0 3 ------- null}
h -t 0.8 -s 0 -d 1 -p cbr -e 500 -c 0 -i 38 -a 0 -x {0.0 3.0 -1 ------- null}
r -t 0.85 -s 0 -d 1 -p cbr -e 500 -c 0 -i 38 -a 0 -x {0.0 3.0 3 ------- null}
+ -t 0.85 -s 1 -d 2 -p cbr -e 500 -c 0 -i 38 -a 0 -x {0.0 3.0 3 ------- null}
- -t 0.85 -s 1 -d 2 -p cbr -e 500 -c 0 -i 38 -a 0 -x {0.0 3.0 3 ------- null}
h -t 0.85 -s 1 -d 2 -p cbr -e 500 -c 0 -i 38 -a 0 -x {0.0 3.0 -1 ------- null}
r -t 0.8604 -s 1 -d 2 -p cbr -e 500 -c 0 -i 38 -a 0 -x {0.0 3.0 3 ------- null}
+ -t 0.8604 -s 2 -d 3 -p cbr -e 500 -c 0 -i 38 -a 0 -x {0.0 3.0 3 ------- null}
- -t 0.8604 -s 2 -d 3 -p cbr -e 500 -c 0 -i 38 -a 0 -x {0.0 3.0 3 ------- null}
h -t 0.8604 -s 2 -d 3 -p cbr -e 500 -c 0 -i 38 -a 0 -x {0.0 3.0 -1 ------- null}
r -t 0.8744 -s 2 -d 3 -p cbr -e 500 -c 0 -i 38 -a 0 -x {0.0 3.0 3 ------- null}
+ -t 0.9 -s 0 -d 1 -p cbr -e 500 -c 0 -i 39 -a 0 -x {0.0 3.0 4 ------- null}
- -t 0.9 -s 0 -d 1 -p cbr -e 500 -c 0 -i 39 -a 0 -x {0.0 3.0 4 ------- null}
h -t 0.9 -s 0 -d 1 -p cbr -e 500 -c 0 -i 39 -a 0 -x {0.0 3.0 -1 ------- null}
r -t 0.95 -s 0 -d 1 -p cbr -e 500 -c 0 -i 39 -a 0 -x {0.0 3.0 4 ------- null}
+ -t 0.95 -s 1 -d 2 -p cbr -e 500 -c 0 -i 39 -a 0 -x {0.0 3.0 4 ------- null}
- -t 0.95 -s 1 -d 2 -p cbr -e 500 -c 0 -i 39 -a 0 -x {0.0 3.0 4 ------- null}
h -t 0.95 -s 1 -d 2 -p cbr -e 500 -c 0 -i 39 -a 0 -x {0.0 3.0 -1 ------- null}
r -t 0.9604 -s 1 -d 2 -p cbr -e 500 -c 0 -i 39 -a 0 -x {0.0 3.0 4 ------- null}
+ -t 0.9604 -s 2 -d 3 -p cbr -e 500 -c 0 -i 39 -a 0 -x {0.0 3.0 4 ------- null}
- -t 0.9604 -s 2 -d 3 -p cbr -e 500 -c 0 -i 39 -a 0 -x {0.0 3.0 4 ------- null}
h -t 0.9604 -s 2 -d 3 -p cbr -e 500 -c 0 -i 39 -a 0 -x {0.0 3.0 -1 ------- null}
r -t 0.9744 -s 2 -d 3 -p cbr -e 500 -c 0 -i 39 -a 0 -x {0.0 3.0 4 ------- null}
+ -t 1 -s 0 -d 1 -p cbr -e 500 -c 0 -i 40 -a 0 -x {0.0 3.0 5 ------- null}
- -t 1 -s 0 -d 1 -p cbr -e 500 -c 0 -i 40 -a 0 -x {0.0 3.0 5 ------- null}
h -t 1 -s 0 -d 1 -p cbr -e 500 -c 0 -i 40 -a 0 -x {0.0 3.0 -1 ------- null}
l -t 1 -s 2 -d 0 -S DOWN
v -t 1 link-down 1 2 0
l -t 1 -s 2 -d 0 -S DOWN
v -t 1 link-down 1 2 0
l -t 1 -s 0 -d 2 -S DOWN
v -t 1 link-down 1 0 2
l -t 1 -s 0 -d 2 -S DOWN
v -t 1 link-down 1 0 2
+ -t 1 -s 2 -d 1 -p rtProtoDV -e 4 -c 0 -i 41 -a 0 -x {2.1 1.1 -1 ------- null}
- -t 1 -s 2 -d 1 -p rtProtoDV -e 4 -c 0 -i 41 -a 0 -x {2.1 1.1 -1 ------- null}
h -t 1 -s 2 -d 1 -p rtProtoDV -e 4 -c 0 -i 41 -a 0 -x {2.1 1.1 -1 ------- null}
+ -t 1 -s 2 -d 3 -p rtProtoDV -e 4 -c 0 -i 42 -a 0 -x {2.1 3.2 -1 ------- null}
- -t 1 -s 2 -d 3 -p rtProtoDV -e 4 -c 0 -i 42 -a 0 -x {2.1 3.2 -1 ------- null}
h -t 1 -s 2 -d 3 -p rtProtoDV -e 4 -c 0 -i 42 -a 0 -x {2.1 3.2 -1 ------- null}
r -t 1.0100032 -s 2 -d 1 -p rtProtoDV -e 4 -c 0 -i 41 -a 0 -x {2.1 1.1 -1 ------- null}
r -t 1.010032 -s 2 -d 3 -p rtProtoDV -e 4 -c 0 -i 42 -a 0 -x {2.1 3.2 -1 ------- null}
r -t 1.05 -s 0 -d 1 -p cbr -e 500 -c 0 -i 40 -a 0 -x {0.0 3.0 5 ------- null}
+ -t 1.05 -s 1 -d 2 -p cbr -e 500 -c 0 -i 40 -a 0 -x {0.0 3.0 5 ------- null}
- -t 1.05 -s 1 -d 2 -p cbr -e 500 -c 0 -i 40 -a 0 -x {0.0 3.0 5 ------- null}
h -t 1.05 -s 1 -d 2 -p cbr -e 500 -c 0 -i 40 -a 0 -x {0.0 3.0 -1 ------- null}
r -t 1.0604 -s 1 -d 2 -p cbr -e 500 -c 0 -i 40 -a 0 -x {0.0 3.0 5 ------- null}
+ -t 1.0604 -s 2 -d 3 -p cbr -e 500 -c 0 -i 40 -a 0 -x {0.0 3.0 5 ------- null}
- -t 1.0604 -s 2 -d 3 -p cbr -e 500 -c 0 -i 40 -a 0 -x {0.0 3.0 5 ------- null}
h -t 1.0604 -s 2 -d 3 -p cbr -e 500 -c 0 -i 40 -a 0 -x {0.0 3.0 -1 ------- null}
r -t 1.0744 -s 2 -d 3 -p cbr -e 500 -c 0 -i 40 -a 0 -x {0.0 3.0 5 ------- null}
+ -t 1.1 -s 0 -d 1 -p cbr -e 500 -c 0 -i 43 -a 0 -x {0.0 3.0 6 ------- null}
- -t 1.1 -s 0 -d 1 -p cbr -e 500 -c 0 -i 43 -a 0 -x {0.0 3.0 6 ------- null}
h -t 1.1 -s 0 -d 1 -p cbr -e 500 -c 0 -i 43 -a 0 -x {0.0 3.0 -1 ------- null}
r -t 1.15 -s 0 -d 1 -p cbr -e 500 -c 0 -i 43 -a 0 -x {0.0 3.0 6 ------- null}
+ -t 1.15 -s 1 -d 2 -p cbr -e 500 -c 0 -i 43 -a 0 -x {0.0 3.0 6 ------- null}
- -t 1.15 -s 1 -d 2 -p cbr -e 500 -c 0 -i 43 -a 0 -x {0.0 3.0 6 ------- null}
h -t 1.15 -s 1 -d 2 -p cbr -e 500 -c 0 -i 43 -a 0 -x {0.0 3.0 -1 ------- null}
r -t 1.1604 -s 1 -d 2 -p cbr -e 500 -c 0 -i 43 -a 0 -x {0.0 3.0 6 ------- null}
+ -t 1.1604 -s 2 -d 3 -p cbr -e 500 -c 0 -i 43 -a 0 -x {0.0 3.0 6 ------- null}
- -t 1.1604 -s 2 -d 3 -p cbr -e 500 -c 0 -i 43 -a 0 -x {0.0 3.0 6 ------- null}
h -t 1.1604 -s 2 -d 3 -p cbr -e 500 -c 0 -i 43 -a 0 -x {0.0 3.0 -1 ------- null}
r -t 1.1744 -s 2 -d 3 -p cbr -e 500 -c 0 -i 43 -a 0 -x {0.0 3.0 6 ------- null}
+ -t 1.2 -s 0 -d 1 -p cbr -e 500 -c 0 -i 44 -a 0 -x {0.0 3.0 7 ------- null}
- -t 1.2 -s 0 -d 1 -p cbr -e 500 -c 0 -i 44 -a 0 -x {0.0 3.0 7 ------- null}
h -t 1.2 -s 0 -d 1 -p cbr -e 500 -c 0 -i 44 -a 0 -x {0.0 3.0 -1 ------- null}
r -t 1.25 -s 0 -d 1 -p cbr -e 500 -c 0 -i 44 -a 0 -x {0.0 3.0 7 ------- null}
+ -t 1.25 -s 1 -d 2 -p cbr -e 500 -c 0 -i 44 -a 0 -x {0.0 3.0 7 ------- null}
- -t 1.25 -s 1 -d 2 -p cbr -e 500 -c 0 -i 44 -a 0 -x {0.0 3.0 7 ------- null}
h -t 1.25 -s 1 -d 2 -p cbr -e 500 -c 0 -i 44 -a 0 -x {0.0 3.0 -1 ------- null}
r -t 1.2604 -s 1 -d 2 -p cbr -e 500 -c 0 -i 44 -a 0 -x {0.0 3.0 7 ------- null}
+ -t 1.2604 -s 2 -d 3 -p cbr -e 500 -c 0 -i 44 -a 0 -x {0.0 3.0 7 ------- null}
- -t 1.2604 -s 2 -d 3 -p cbr -e 500 -c 0 -i 44 -a 0 -x {0.0 3.0 7 ------- null}
h -t 1.2604 -s 2 -d 3 -p cbr -e 500 -c 0 -i 44 -a 0 -x {0.0 3.0 -1 ------- null}
r -t 1.2744 -s 2 -d 3 -p cbr -e 500 -c 0 -i 44 -a 0 -x {0.0 3.0 7 ------- null}
+ -t 1.3 -s 0 -d 1 -p cbr -e 500 -c 0 -i 45 -a 0 -x {0.0 3.0 8 ------- null}
- -t 1.3 -s 0 -d 1 -p cbr -e 500 -c 0 -i 45 -a 0 -x {0.0 3.0 8 ------- null}
h -t 1.3 -s 0 -d 1 -p cbr -e 500 -c 0 -i 45 -a 0 -x {0.0 3.0 -1 ------- null}
r -t 1.35 -s 0 -d 1 -p cbr -e 500 -c 0 -i 45 -a 0 -x {0.0 3.0 8 ------- null}
+ -t 1.35 -s 1 -d 2 -p cbr -e 500 -c 0 -i 45 -a 0 -x {0.0 3.0 8 ------- null}
- -t 1.35 -s 1 -d 2 -p cbr -e 500 -c 0 -i 45 -a 0 -x {0.0 3.0 8 ------- null}
h -t 1.35 -s 1 -d 2 -p cbr -e 500 -c 0 -i 45 -a 0 -x {0.0 3.0 -1 ------- null}
r -t 1.3604 -s 1 -d 2 -p cbr -e 500 -c 0 -i 45 -a 0 -x {0.0 3.0 8 ------- null}
+ -t 1.3604 -s 2 -d 3 -p cbr -e 500 -c 0 -i 45 -a 0 -x {0.0 3.0 8 ------- null}
- -t 1.3604 -s 2 -d 3 -p cbr -e 500 -c 0 -i 45 -a 0 -x {0.0 3.0 8 ------- null}
h -t 1.3604 -s 2 -d 3 -p cbr -e 500 -c 0 -i 45 -a 0 -x {0.0 3.0 -1 ------- null}
r -t 1.3744 -s 2 -d 3 -p cbr -e 500 -c 0 -i 45 -a 0 -x {0.0 3.0 8 ------- null}
+ -t 1.4 -s 0 -d 1 -p cbr -e 500 -c 0 -i 46 -a 0 -x {0.0 3.0 9 ------- null}
- -t 1.4 -s 0 -d 1 -p cbr -e 500 -c 0 -i 46 -a 0 -x {0.0 3.0 9 ------- null}
h -t 1.4 -s 0 -d 1 -p cbr -e 500 -c 0 -i 46 -a 0 -x {0.0 3.0 -1 ------- null}
r -t 1.45 -s 0 -d 1 -p cbr -e 500 -c 0 -i 46 -a 0 -x {0.0 3.0 9 ------- null}
+ -t 1.45 -s 1 -d 2 -p cbr -e 500 -c 0 -i 46 -a 0 -x {0.0 3.0 9 ------- null}
- -t 1.45 -s 1 -d 2 -p cbr -e 500 -c 0 -i 46 -a 0 -x {0.0 3.0 9 ------- null}
h -t 1.45 -s 1 -d 2 -p cbr -e 500 -c 0 -i 46 -a 0 -x {0.0 3.0 -1 ------- null}
r -t 1.4604 -s 1 -d 2 -p cbr -e 500 -c 0 -i 46 -a 0 -x {0.0 3.0 9 ------- null}
+ -t 1.4604 -s 2 -d 3 -p cbr -e 500 -c 0 -i 46 -a 0 -x {0.0 3.0 9 ------- null}
- -t 1.4604 -s 2 -d 3 -p cbr -e 500 -c 0 -i 46 -a 0 -x {0.0 3.0 9 ------- null}
h -t 1.4604 -s 2 -d 3 -p cbr -e 500 -c 0 -i 46 -a 0 -x {0.0 3.0 -1 ------- null}
r -t 1.4744 -s 2 -d 3 -p cbr -e 500 -c 0 -i 46 -a 0 -x {0.0 3.0 9 ------- null}
+ -t 1.5 -s 0 -d 1 -p cbr -e 500 -c 0 -i 47 -a 0 -x {0.0 3.0 10 ------- null}
- -t 1.5 -s 0 -d 1 -p cbr -e 500 -c 0 -i 47 -a 0 -x {0.0 3.0 10 ------- null}
h -t 1.5 -s 0 -d 1 -p cbr -e 500 -c 0 -i 47 -a 0 -x {0.0 3.0 -1 ------- null}
r -t 1.55 -s 0 -d 1 -p cbr -e 500 -c 0 -i 47 -a 0 -x {0.0 3.0 10 ------- null}
+ -t 1.55 -s 1 -d 2 -p cbr -e 500 -c 0 -i 47 -a 0 -x {0.0 3.0 10 ------- null}
- -t 1.55 -s 1 -d 2 -p cbr -e 500 -c 0 -i 47 -a 0 -x {0.0 3.0 10 ------- null}
h -t 1.55 -s 1 -d 2 -p cbr -e 500 -c 0 -i 47 -a 0 -x {0.0 3.0 -1 ------- null}
r -t 1.5604 -s 1 -d 2 -p cbr -e 500 -c 0 -i 47 -a 0 -x {0.0 3.0 10 ------- null}
+ -t 1.5604 -s 2 -d 3 -p cbr -e 500 -c 0 -i 47 -a 0 -x {0.0 3.0 10 ------- null}
- -t 1.5604 -s 2 -d 3 -p cbr -e 500 -c 0 -i 47 -a 0 -x {0.0 3.0 10 ------- null}
h -t 1.5604 -s 2 -d 3 -p cbr -e 500 -c 0 -i 47 -a 0 -x {0.0 3.0 -1 ------- null}
r -t 1.5744 -s 2 -d 3 -p cbr -e 500 -c 0 -i 47 -a 0 -x {0.0 3.0 10 ------- null}
+ -t 1.6 -s 0 -d 1 -p cbr -e 500 -c 0 -i 48 -a 0 -x {0.0 3.0 11 ------- null}
- -t 1.6 -s 0 -d 1 -p cbr -e 500 -c 0 -i 48 -a 0 -x {0.0 3.0 11 ------- null}
h -t 1.6 -s 0 -d 1 -p cbr -e 500 -c 0 -i 48 -a 0 -x {0.0 3.0 -1 ------- null}
r -t 1.65 -s 0 -d 1 -p cbr -e 500 -c 0 -i 48 -a 0 -x {0.0 3.0 11 ------- null}
+ -t 1.65 -s 1 -d 2 -p cbr -e 500 -c 0 -i 48 -a 0 -x {0.0 3.0 11 ------- null}
- -t 1.65 -s 1 -d 2 -p cbr -e 500 -c 0 -i 48 -a 0 -x {0.0 3.0 11 ------- null}
h -t 1.65 -s 1 -d 2 -p cbr -e 500 -c 0 -i 48 -a 0 -x {0.0 3.0 -1 ------- null}
r -t 1.6604 -s 1 -d 2 -p cbr -e 500 -c 0 -i 48 -a 0 -x {0.0 3.0 11 ------- null}
+ -t 1.6604 -s 2 -d 3 -p cbr -e 500 -c 0 -i 48 -a 0 -x {0.0 3.0 11 ------- null}
- -t 1.6604 -s 2 -d 3 -p cbr -e 500 -c 0 -i 48 -a 0 -x {0.0 3.0 11 ------- null}
h -t 1.6604 -s 2 -d 3 -p cbr -e 500 -c 0 -i 48 -a 0 -x {0.0 3.0 -1 ------- null}
r -t 1.6744 -s 2 -d 3 -p cbr -e 500 -c 0 -i 48 -a 0 -x {0.0 3.0 11 ------- null}
+ -t 1.7 -s 0 -d 1 -p cbr -e 500 -c 0 -i 49 -a 0 -x {0.0 3.0 12 ------- null}
- -t 1.7 -s 0 -d 1 -p cbr -e 500 -c 0 -i 49 -a 0 -x {0.0 3.0 12 ------- null}
h -t 1.7 -s 0 -d 1 -p cbr -e 500 -c 0 -i 49 -a 0 -x {0.0 3.0 -1 ------- null}
r -t 1.75 -s 0 -d 1 -p cbr -e 500 -c 0 -i 49 -a 0 -x {0.0 3.0 12 ------- null}
+ -t 1.75 -s 1 -d 2 -p cbr -e 500 -c 0 -i 49 -a 0 -x {0.0 3.0 12 ------- null}
- -t 1.75 -s 1 -d 2 -p cbr -e 500 -c 0 -i 49 -a 0 -x {0.0 3.0 12 ------- null}
h -t 1.75 -s 1 -d 2 -p cbr -e 500 -c 0 -i 49 -a 0 -x {0.0 3.0 -1 ------- null}